      38
 i =      212, E =      -174.7234164789
  O         2.5275062202       -1.4246752904        0.7755143722
  O         5.3855081262        1.7988534142       -1.4270959783
  O        -5.8709508688       -1.9241098161        0.9155618305
  O        -0.8223689990        1.7582720748       -0.2993380546
  N         0.2887983338       -0.2599742556       -0.3778441710
  C         1.5785484916        0.2481651575       -0.6842611643
  C         2.7160153724       -0.3302176574       -0.0826483170
  C        -2.1341305996       -0.2138004100        0.0322840497
  C         1.7309749112        1.2991733456       -1.5965598593
  C        -0.8510655977        0.5235719908       -0.2197837765
  C         4.0083791735        0.1440623442       -0.3658614883
  C         4.1168943900        1.2354132644       -1.2344094079
  C         2.9975687372        1.7979155057       -1.8636956532
  C        -3.3260461199        0.5307767509       -0.0753244881
  C        -2.2116338769       -1.5748952944        0.3832119312
  C        -4.6110769024       -1.3994782597        0.5778180076
  C        -4.5650421211       -0.0561951157        0.1813984831
  C        -3.4406161812       -2.1679402534        0.6686797773
  C         2.1575440663       -1.0294531132        2.1311112600
  C         5.4836523754        3.0786414977       -0.7329528761
  C        -5.9837641980       -2.1941640555        2.3441235987
  H         0.2523425846       -1.2482690499       -0.1544403703
  H         0.8553132908        1.7300352714       -2.0650006845
  H         4.8960759803       -0.2843377231        0.0950735004
  H         3.1284079420        2.6287212748       -2.5511853446
  H        -3.2529420778        1.5792838087       -0.3455454196
  H        -1.3211013150       -2.1927049042        0.4686159831
  H        -5.5043306983        0.4942287001        0.1124164004
  H        -3.4958603248       -3.2119769355        0.9634552524
  H         2.0142190147       -1.9589754822        2.6896018805
  H         2.9613634525       -0.4381345083        2.5878349045
  H         1.2289965985       -0.4435538572        2.1280785323
  H         6.4927975999        3.4597686704       -0.9464210650
  H         5.3765828713        2.9270086532        0.3522382657
  H         4.7176815228        3.7832560791       -1.0835387398
  H        -6.9928557006       -2.6037100100        2.4890734481
  H        -5.2199472846       -2.9078818392        2.6812038764
  H        -5.8905036806       -1.2547488267        2.9098945225
