     294
 i =        1, E =     -1811.4145161362
  C        -5.3609258841       -2.7971480819        1.5969974379
  N        -4.7767625772       -3.8971848427        1.0929266097
  C        -3.8880278831       -4.5081956280        1.9017770617
  N        -3.5656335461       -4.0741251730        3.1384156303
  C        -4.2030394216       -2.9620428986        3.5536542323
  N        -5.1043455359       -2.2845357010        2.8163629682
  C        -6.3298851666       -2.0543905330        0.7204164095
  C        -6.9606012182       -0.8780278825        1.1562230338
  C        -7.8095483062       -0.1858981928        0.2951243599
  N        -8.0721439707       -0.5955830614       -0.9755213669
  C        -7.4879006792       -1.7533619942       -1.3852673257
  C        -6.6268036736       -2.4963171383       -0.5800884908
  H        -6.7962264027       -0.5017129890        2.1580022553
  H        -8.3027208560        0.7215467762        0.6170804414
  H        -7.7305405836       -2.0831560398       -2.3861373424
  H        -6.1967702424       -3.4123189970       -0.9638173001
  C        -3.1807410543       -5.7180405259        1.3789452684
  C        -3.4343140422       -6.2157638637        0.0904319000
  C        -2.7149614919       -7.3106290768       -0.3853285038
  N        -1.7579776731       -7.9439701524        0.3465322441
  C        -1.5365285437       -7.4813266048        1.6060259956
  C        -2.2162262784       -6.3918645867        2.1457944042
  H        -4.1882186099       -5.7601940737       -0.5396439596
  H        -2.9003166910       -7.7055177378       -1.3752286163
  H        -0.7949473106       -8.0131083244        2.1868242429
  H        -1.9967698284       -6.0762365816        3.1579978665
  C        -3.8527096661       -2.4181807118        4.9025189179
  C        -2.8991201155       -3.0457838545        5.7205992834
  C        -2.5535791923       -2.4792111861        6.9470010746
  N        -3.1044715158       -1.3247107689        7.4106769762
  C        -4.0516436514       -0.7348094089        6.6324922491
  C        -4.4439362813       -1.2434599314        5.3963543864
  H        -2.4280575266       -3.9704567506        5.4108522291
  H        -1.8230382897       -2.9519991323        7.5876421373
  H        -4.5027667836        0.1651941184        7.0281902046
  H        -5.2074769866       -0.7284204674        4.8265898642
  C        -1.8978994507        4.9103660307       -3.3676817337
  N        -1.0858879944        4.3969356931       -4.3143828491
  C        -1.5886444516        3.3630923608       -5.0187086608
  N        -2.8128776584        2.8326746987       -4.8208084067
  C        -3.5512827634        3.4093993707       -3.8512294255
  N        -3.1349939309        4.4466120683       -3.0965144307
  C        -1.3735498828        6.0350218715       -2.5320200634
  C        -2.1406618945        6.6053708626       -1.5030214761
  C        -1.5965216252        7.6121078257       -0.7072166225
  N        -0.3382107396        8.0902016549       -0.8758238721
  C         0.3965433350        7.5601082414       -1.8938299020
  C        -0.0812089706        6.5521700588       -2.7261100649
  H        -3.1551735991        6.2727082439       -1.3215343885
  H        -2.1754415932        8.0600583438        0.0889494009
  H         1.3868249916        7.9707659479       -2.0357416222
  H         0.5487038049        6.1750928091       -3.5233642738
  C        -0.7137431505        2.7344743555       -6.0561480451
  C         0.5856858206        3.2071520375       -6.3047359114
  C         1.3934280070        2.5610885254       -7.2386103135
  N         0.9861872416        1.4716698459       -7.9446778542
  C        -0.2843398522        1.0342867757       -7.7281396788
  C        -1.1462796869        1.6299087894       -6.8099805211
  H         0.9669488876        4.0738821682       -5.7800209607
  H         2.3949763717        2.9151865070       -7.4410323525
  H        -0.6060133587        0.1879740503       -8.3195141858
  H        -2.1475198784        1.2360818380       -6.6871337337
  C        -4.9017098190        2.8337126531       -3.5636649413
  C        -5.3999251399        1.7361446669       -4.2853224511
  C        -6.6372060032        1.1895205814       -3.9522969686
  N        -7.4128815182        1.6711916463       -2.9424616332
  C        -6.9452951944        2.7550068196       -2.2664667992
  C        -5.7177358814        3.3510583564       -2.5439292816
  H        -4.8328012011        1.3098461754       -5.1035435780
  H        -7.0337428125        0.3447473535       -4.4982687102
  H        -7.5859546011        3.1450160288       -1.4874224536
  H        -5.4035290282        4.2147853464       -1.9710712625
  C         3.8800775609        2.5493409048        4.1890188373
  N         3.5845333295        3.7028555377        3.5554703938
  C         2.4058211907        4.2670592080        3.8825928490
  N         1.5387056072        3.7453204712        4.7725929144
  C         1.9174048926        2.5916254952        5.3560535777
  N         3.0764768739        1.9549275405        5.0930752159
  C         5.1600268510        1.8626531766        3.8313129072
  C         5.5291647750        0.6435741645        4.4235062900
  C         6.7000427746        0.0033809597        4.0247814025
  N         7.5316076409        0.5055038629        3.0711279028
  C         7.1911569399        1.7026676751        2.5215037596
  C         6.0355228658        2.3964893510        2.8709907632
  H         4.9123378368        0.1934929375        5.1918934059
  H         6.9975986357       -0.9353098605        4.4720024408
  H         7.8769996033        2.1043729163        1.7884774763
  H         5.8230740451        3.3482811376        2.3998920427
  C         2.0146829144        5.5281996765        3.1785743519
  C         2.8464103204        6.1172985362        2.2130274884
  C         2.4249127915        7.2593810812        1.5369303562
  N         1.2247385478        7.8565714094        1.7661971527
  C         0.4316163969        7.3046004540        2.7248437140
  C         0.7897161072        6.1608876061        3.4378510812
  H         3.8178510452        5.6943149089        1.9890975988
  H         3.0549018900        7.7251099775        0.7911954605
  H        -0.5058409707        7.8072784600        2.9182903629
  H         0.1145827741        5.7743772944        4.1927503090
  C         0.9720431321        1.9515753601        6.3231893366
  C        -0.2713568215        2.5312036968        6.6254049122
  C        -1.1515100224        1.8784539662        7.4859633736
  N        -0.8677499648        0.6817616714        8.0683270105
  C         0.3495851106        0.1366180626        7.8020841158
  C         1.2770923269        0.7322836157        6.9495838538
  H        -0.5539174957        3.4855794926        6.1989321297
  H        -2.1112452295        2.3134981817        7.7289314364
  H         0.5735295452       -0.7982348867        8.2968978828
  H         2.2317393202        0.2489076547        6.7819693151
  C         3.3863955071       -4.6753297011       -2.4190044531
  N         3.1235303407       -4.0699367112       -3.5922104981
  C         3.8783454182       -2.9990335083       -3.8900085895
  N         4.8451699209       -2.5109044620       -3.0873417406
  C         5.0379072406       -3.1750182519       -1.9307870340
  N         4.3316565105       -4.2599722321       -1.5519974046
  C         2.5458541326       -5.8505400078       -2.0286566580
  C         2.7371407536       -6.5143834248       -0.8055816838
  C         1.8973813700       -7.5679129597       -0.4486659242
  N         0.8792007457       -8.0041384287       -1.2381999593
  C         0.7159525164       -7.3832010348       -2.4376834555
  C         1.5151966621       -6.3223332438       -2.8570725378
  H         3.5336577152       -6.2183965474       -0.1344971171
  H         2.0329832501       -8.0892884167        0.4890213126
  H        -0.0769328634       -7.7614333374       -3.0679744700
  H         1.3369519029       -5.8725077670       -3.8264801833
  C         3.5961062759       -2.2728869140       -5.1671686101
  C         2.5860986919       -2.6984560766       -6.0453229606
  C         2.3110066497       -1.9641726288       -7.1969193300
  N         2.9847130466       -0.8300414865       -7.5313741390
  C         3.9849897668       -0.4364981019       -6.6979706571
  C         4.3136581886       -1.1203250180       -5.5293939072
  H         2.0168912936       -3.5965842333       -5.8385650901
  H         1.5364912693       -2.2802616353       -7.8822998094
  H         4.5325783035        0.4485320278       -6.9929984744
  H         5.1244128126       -0.7578140072       -4.9105777570
  C         6.0718730322       -2.6498885831       -0.9860923958
  C         6.8348368045       -1.5102594860       -1.2924941777
  C         7.7469345732       -1.0142528994       -0.3635510454
  N         7.9510558872       -1.5860070877        0.8539343798
  C         7.2361414443       -2.7084786486        1.1378968321
  C         6.3052976629       -3.2584441570        0.2585700620
  H         6.7234735788       -1.0123334258       -2.2474782729
  H         8.3414377874       -0.1386108742       -0.5855716338
  H         7.4302269072       -3.1698114453        2.0963383529
  H         5.7715650162       -4.1569207959        0.5420063598
 Pd        -0.5302730799       -9.5685827185       -0.5367145065
  N         0.5990515924      -11.1974801333       -1.3782021119
  N        -1.8456758020      -11.1415882739        0.1215212949
  C         1.0221134438      -10.9556243870       -2.7962164594
  C         1.8221598010      -11.4340212353       -0.5345904313
  C        -0.3109354692      -12.4160796042       -1.3489575444
  C        -1.0844827281      -12.4461729151       -0.0553634695
  C        -3.0845308125      -11.1334343331       -0.7314583159
  C        -2.2433017156      -11.0172079534        1.5633102137
  H         0.1482982826      -10.7133622327       -3.4029843503
  H         1.4888573650      -11.8652109388       -3.1948398636
  H         1.7487918172      -10.1449433759       -2.8257180710
  H         1.5401590675      -11.6409361461        0.4963056412
  H         2.4581418113      -10.5495332718       -0.5782580464
  H         2.3784665839      -12.2924743129       -0.9329829128
  H        -0.9710008916      -12.3495158783       -2.2161408711
  H         0.2942616559      -13.3207258098       -1.4630258695
  H        -0.4284930750      -12.5608932218        0.8085179479
  H        -1.7937525533      -13.2805356477       -0.0455125450
  H        -2.8236233176      -11.2505944040       -1.7823923388
  H        -3.6118293784      -10.1915461678       -0.5799194973
  H        -3.7389498256      -11.9603761169       -0.4306471524
  H        -1.3488875338      -10.9534214159        2.1845399789
  H        -2.8172673207      -11.9046372469        1.8574603610
  H        -2.8670468844      -10.1342627823        1.6923958697
 Pd        -9.2909423438        0.6483973957       -2.3505009051
  N       -10.5371667746        1.8259710245       -3.6492670058
  C       -10.2671366797        3.3000267207       -3.5587061342
  C       -10.3316667611        1.3787829591       -5.0723334567
  C       -11.9723254469        1.5770765181       -3.2161126053
  H       -10.3450517197        3.6212177021       -2.5192873828
  H       -11.0115454716        3.8422266391       -4.1546426529
  H        -9.2753394862        3.5112311497       -3.9555232611
  H       -10.5486810642        0.3158509263       -5.1716380756
  H        -9.2988793576        1.5773591545       -5.3584585641
  H       -10.9994583946        1.9439658946       -5.7326694306
  H       -12.1697478442        2.2165461738       -2.3543261776
  H       -12.6519328093        1.8872801303       -4.0185734953
  C       -12.1616719637        0.1178507446       -2.8890819757
  N       -11.1502887756       -0.3102691066       -1.8389796428
  H       -12.0157305692       -0.5174434757       -3.7636733551
  H       -13.1731035953       -0.0687358546       -2.5111981451
  C       -11.5806182731        0.1464655216       -0.4725295027
  C       -11.0649479296       -1.8090211389       -1.8472317909
  H       -11.6783249389        1.2315542124       -0.4475428322
  H       -10.8419628105       -0.1790748794        0.2590200322
  H       -12.5499072340       -0.3051763848       -0.2261995198
  H       -10.6868506143       -2.1483459720       -2.8124758751
  H       -12.0666653046       -2.2286911109       -1.6910023901
  H       -10.4137481396       -2.1394479918       -1.0394991817
 Pd        -2.3865410951       -0.3858275743        9.2876736870
  N        -1.7387556832        0.4788984776       11.1504477592
  C        -0.2526911980        0.4265062762       11.3435799590
  C        -2.1908759121        1.9125765948       11.2107738820
  C        -2.3954200190       -0.3334363927       12.2559772123
  H         0.0943237046       -0.6020491657       11.2330919089
  H        -0.0064120156        0.7764605722       12.3543015484
  H         0.2308217611        1.0775141212       10.6172270829
  H        -3.2723917335        1.9769498070       11.1019790334
  H        -1.7013749311        2.4716318051       10.4126390208
  H        -1.9014820583        2.3446596544       12.1763789903
  H        -1.7932761862       -1.2317242069       12.4009836997
  H        -2.3640349690        0.2386930153       13.1890967173
  C        -3.8157447470       -0.6629942998       11.8748399026
  N        -3.8389143808       -1.3764061024       10.5306747410
  H        -4.4305320859        0.2334502977       11.7802365058
  H        -4.2830609225       -1.3040132372       12.6309849881
  C        -3.4467140943       -2.8188118811       10.6940847683
  C        -5.2344503642       -1.3066191364        9.9844310909
  H        -2.4457679078       -2.8951598086       11.1176830842
  H        -3.4785349497       -3.3056073573        9.7201690313
  H        -4.1580090389       -3.3154075384       11.3648018028
  H        -5.5024716306       -0.2658845138        9.7973379632
  H        -5.9324303566       -1.7261225428       10.7194778660
  H        -5.2928584595       -1.8916021310        9.0681521594
 Pd         0.5359633981        9.5681025380        0.5313918228
  N        -0.0934387809       11.2783458417       -0.6148071437
  C         0.2133676045       11.1544627010       -2.0815268387
  C        -1.5728387458       11.4714179272       -0.4404958372
  C         0.6719763471       12.4724464455       -0.0677047560
  H         1.2748140260       10.9412744887       -2.2164659655
  H        -0.0248026300       12.1015708001       -2.5816914212
  H        -0.3971301420       10.3631895830       -2.5136383337
  H        -1.8179608106       11.5916593347        0.6139878279
  H        -2.0936380765       10.6050211133       -0.8486321022
  H        -1.8907292050       12.3683405011       -0.9866267863
  H         1.6642366149       12.4624425380       -0.5205030447
  H         0.1735097327       13.3956227358       -0.3851658337
  C         0.7380252497       12.3897704854        1.4360665396
  N         1.3482435935       11.0624570979        1.8537136916
  H        -0.2516533827       12.4509676270        1.8910421131
  H         1.3407274404       13.2072532295        1.8448157600
  C         2.8444495843       11.0954104245        1.6920765483
  C         1.0176946986       10.8215071785        3.2970196466
  H         3.1106344810       11.2949762387        0.6547586113
  H         3.2559591921       10.1362484226        2.0058640017
  H         3.2606549053       11.8863493975        2.3273635863
  H        -0.0625074074       10.7276740772        3.4129863710
  H         1.3668704897       11.6732307374        3.8933721644
  H         1.5230747863        9.9196738564        3.6396491530
 Pd         9.2881634296       -0.6482921893        2.3554844453
  N        11.0331791080       -1.7401966157        1.7250463751
  C        10.7837395263       -3.2112027137        1.5556486999
  C        11.5225623841       -1.1733622223        0.4213662016
  C        12.0769702936       -1.5550116518        2.8139756173
  H        10.3649112125       -3.6191052153        2.4761784479
  H        11.7342122734       -3.7167762090        1.3432580122
  H        10.1053414492       -3.3687658297        0.7188143232
  H        11.7357049113       -0.1103860470        0.5241345338
  H        10.7580628020       -1.3292539553       -0.3401548839
  H        12.4387080757       -1.6947902596        0.1173966740
  H        11.8524897575       -2.2677901046        3.6080628069
  H        13.0646944692       -1.8089502879        2.4128662878
  C        12.0504369428       -0.1314441137        3.3105354598
  N        10.6505611583        0.2250197017        3.7784042017
  H        12.3275693137        0.5776636936        2.5291818208
  H        12.7527146120        0.0038987825        4.1415517895
  C        10.3786385155       -0.3576998949        5.1362166049
  C        10.5443718141        1.7215242447        3.8571577839
  H        10.4768958983       -1.4421240307        5.1102836374
  H         9.3708796313       -0.0808978491        5.4447386590
  H        11.0971805093        0.0502277071        5.8571937691
  H        10.6686856935        2.1502333619        2.8619309471
  H        11.3378680708        2.1048487029        4.5106205039
  H         9.5779872832        1.9949081506        4.2776763865
 Pd         2.3823805675        0.3883225107       -9.2861591513
  N         1.8553123945        1.4750052913      -11.0330839064
  C         0.3560610913        1.6498046841      -11.2207505900
  C         2.4425413572        2.8966209708      -10.9359066253
  C         2.4096901806        0.7738253679      -12.2290484039
  H        -0.0984098016        0.6581616760      -11.2237851872
  H         0.1530989489        2.1364910861      -12.1829412003
  H        -0.0577880549        2.2617935980      -10.4208782856
  H         3.5241654658        2.8301889551      -10.8250400692
  H         2.0095911993        3.4112799634      -10.0787323784
  H         2.2098531916        3.4621343131      -11.8462177373
  H         1.7159057759       -0.0317540937      -12.4723520496
  H         2.4457084165        1.4488230145      -13.0918069785
  C         3.7850874547        0.2531418554      -11.8973291456
  N         3.7238617268       -0.6055824852      -10.6461411278
  H         4.4916657265        1.0613503938      -11.7062556219
  H         4.1838293674       -0.3443177520      -12.7256176739
  C         3.1796045769       -1.9705959900      -10.9677472409
  C         5.1158497033       -0.7522327303      -10.1044284049
  H         2.1799699150       -1.8920286467      -11.3930067668
  H         3.1515291496       -2.5647046876      -10.0541610283
  H         3.8391117388       -2.4638231374      -11.6922205898
  H         5.4953834922        0.2249755575       -9.8018323616
  H         5.7679339616       -1.1590265465      -10.8871073006
  H         5.1056546123       -1.4405105758       -9.2606364280
     294
 i =        2, E =     -1811.4188577307
  C        -5.3606641235       -2.8005765686        1.6041514148
  N        -4.7754515825       -3.9014086225        1.0869566586
  C        -3.8855534784       -4.5107370400        1.9022611949
  N        -3.5596679000       -4.0775305458        3.1424484243
  C        -4.2016612853       -2.9608248070        3.5573171393
  N        -5.1054974076       -2.2794762223        2.8204691584
  C        -6.3294386493       -2.0545671469        0.7202884277
  C        -6.9609638609       -0.8769835244        1.1581403285
  C        -7.8110723348       -0.1834811955        0.2942103133
  N        -8.0755404697       -0.5916937328       -0.9810794175
  C        -7.4887919771       -1.7532180224       -1.3885353490
  C        -6.6259312772       -2.4976175024       -0.5814481864
  H        -6.7961536084       -0.5008044501        2.1601302526
  H        -8.3048029847        0.7250210360        0.6183978110
  H        -7.7316407610       -2.0846255224       -2.3902685912
  H        -6.1958666089       -3.4146266380       -0.9648409600
  C        -3.1791873665       -5.7188868922        1.3786553811
  C        -3.4346816329       -6.2148586016        0.0888517320
  C        -2.7143961986       -7.3130639703       -0.3867646055
  N        -1.7545504790       -7.9510579921        0.3449864265
  C        -1.5345815226       -7.4835633245        1.6072696163
  C        -2.2149592779       -6.3910759101        2.1475094757
  H        -4.1895139206       -5.7594924810       -0.5409246238
  H        -2.9010215049       -7.7070958876       -1.3789995135
  H        -0.7921834954       -8.0151484791        2.1891460354
  H        -1.9962654849       -6.0757686062        3.1599487131
  C        -3.8527433665       -2.4177503182        4.9045250277
  C        -2.8984893224       -3.0475541224        5.7214797785
  C        -2.5509649495       -2.4784409557        6.9502142233
  N        -3.1009672001       -1.3217346049        7.4168217129
  C        -4.0511891283       -0.7326610222        6.6348189047
  C        -4.4453548537       -1.2422971363        5.3961485203
  H        -2.4271488058       -3.9722932934        5.4105027797
  H        -1.8195835561       -2.9543366230        7.5907851944
  H        -4.5045494147        0.1686273284        7.0296819857
  H        -5.2089265393       -0.7273454272        4.8257488325
  C        -1.8965597494        4.9123341221       -3.3667082500
  N        -1.0782011288        4.3983644734       -4.3137632390
  C        -1.5866901526        3.3613255006       -5.0192043797
  N        -2.8160734664        2.8278926898       -4.8258907491
  C        -3.5535949223        3.4083176499       -3.8511392285
  N        -3.1390056598        4.4491513348       -3.0920176955
  C        -1.3731303853        6.0367838116       -2.5299887938
  C        -2.1423754672        6.6049416442       -1.5022102154
  C        -1.5987748664        7.6146283078       -0.7035134931
  N        -0.3380830920        8.0991483460       -0.8715572787
  C         0.3978947285        7.5632010084       -1.8914912440
  C        -0.0787515144        6.5551099770       -2.7244382107
  H        -3.1569828475        6.2722529608       -1.3211676766
  H        -2.1781019606        8.0619747324        0.0921365322
  H         1.3906073009        7.9727005050       -2.0360585320
  H         0.5497586989        6.1748263129       -3.5242821051
  C        -0.7122166248        2.7336073727       -6.0561360170
  C         0.5874075687        3.2083611185       -6.3035273016
  C         1.3964559078        2.5610041493       -7.2401996905
  N         0.9907960169        1.4687238135       -7.9499836493
  C        -0.2834894290        1.0318881608       -7.7303552352
  C        -1.1479171518        1.6297001466       -6.8106878310
  H         0.9679627054        4.0758038775       -5.7790267786
  H         2.3991928945        2.9166451422       -7.4419381673
  H        -0.6074197888        0.1844742518       -8.3219210303
  H        -2.1494494700        1.2351979151       -6.6871872126
  C        -4.9035952264        2.8327354658       -3.5628336972
  C        -5.3996600151        1.7349110067       -4.2869936670
  C        -6.6396910279        1.1873947575       -3.9530370731
  N        -7.4172432501        1.6662209234       -2.9387951678
  C        -6.9482974761        2.7549847760       -2.2648187915
  C        -5.7177390399        3.3525188300       -2.5423152283
  H        -4.8318678510        1.3089271685       -5.1051904919
  H        -7.0355249812        0.3411013751       -4.5007544726
  H        -7.5886149185        3.1467450817       -1.4844547150
  H        -5.4032654631        4.2164629550       -1.9700983592
  C         3.8817885932        2.5485605732        4.1887688573
  N         3.5886099162        3.7064552115        3.5511953345
  C         2.4055441201        4.2693584974        3.8808679275
  N         1.5336310452        3.7472368585        4.7718897421
  C         1.9163196789        2.5910497485        5.3574289678
  N         3.0784548571        1.9489180698        5.0958677767
  C         5.1615606955        1.8621827129        3.8303038000
  C         5.5288620958        0.6433495903        4.4259271991
  C         6.7021485641        0.0012695719        4.0256405752
  N         7.5380660192        0.5025805567        3.0698018310
  C         7.1941419939        1.7026085109        2.5197555267
  C         6.0358976744        2.3984048409        2.8697027515
  H         4.9114323263        0.1926867507        5.1933134976
  H         6.9987283286       -0.9391765427        4.4739809807
  H         7.8798138846        2.1060859306        1.7853221337
  H         5.8229570194        3.3500532741        2.3990025291
  C         2.0155017075        5.5291075056        3.1763461503
  C         2.8490554112        6.1171955604        2.2117939835
  C         2.4268330482        7.2616633068        1.5350349237
  N         1.2244908553        7.8645312739        1.7640295224
  C         0.4310805104        7.3067346222        2.7245842781
  C         0.7905780461        6.1598636914        3.4383525160
  H         3.8198078267        5.6936576216        1.9886691491
  H         3.0575843084        7.7269494447        0.7882754503
  H        -0.5097116634        7.8093713766        2.9191711236
  H         0.1139298660        5.7738584675        4.1935653847
  C         0.9712940315        1.9513839807        6.3242403968
  C        -0.2724517658        2.5327271098        6.6247881280
  C        -1.1540208588        1.8784210510        7.4872337796
  N        -0.8723409179        0.6783475742        8.0715335534
  C         0.3491925538        0.1342357584        7.8036744745
  C         1.2787126258        0.7308876532        6.9492961026
  H        -0.5545722878        3.4874600445        6.1982666576
  H        -2.1151680573        2.3153418328        7.7300455746
  H         0.5745683436       -0.8021965427        8.2990284899
  H         2.2334189594        0.2479800296        6.7818211654
  C         3.3864915348       -4.6764572950       -2.4167888479
  N         3.1151188041       -4.0629662298       -3.5910709559
  C         3.8798815353       -2.9955903933       -3.8912936971
  N         4.8497652191       -2.5048813514       -3.0888535419
  C         5.0389985437       -3.1736983178       -1.9296498226
  N         4.3343953132       -4.2651597712       -1.5464396787
  C         2.5445013614       -5.8518824400       -2.0286669744
  C         2.7388114424       -6.5147834682       -0.8045820053
  C         1.8966167498       -7.5696898183       -0.4465369998
  N         0.8743331223       -8.0100490058       -1.2362170768
  C         0.7136407825       -7.3856915870       -2.4381844856
  C         1.5134533853       -6.3217752955       -2.8586893661
  H         3.5352642037       -6.2180291327       -0.1332696559
  H         2.0335295124       -8.0914688801        0.4929080108
  H        -0.0802228895       -7.7630022288       -3.0706644785
  H         1.3366564087       -5.8719057838       -3.8280962691
  C         3.5958419508       -2.2716585563       -5.1682482497
  C         2.5851932331       -2.6999748627       -6.0454753199
  C         2.3092014341       -1.9634757417       -7.1994309935
  N         2.9835853571       -0.8263411226       -7.5378414451
  C         3.9856419484       -0.4343586497       -6.6992661776
  C         4.3163757968       -1.1196689422       -5.5274874254
  H         2.0158987010       -3.5981602391       -5.8383821989
  H         1.5332548447       -2.2815718529       -7.8851481680
  H         4.5348015285        0.4519838852       -6.9939958131
  H         5.1263600037       -0.7568618693       -4.9092829304
  C         6.0728272666       -2.6493780095       -0.9854031446
  C         6.8354064530       -1.5094067596       -1.2943032414
  C         7.7488513051       -1.0116755482       -0.3628351093
  N         7.9560201238       -1.5823910015        0.8582814732
  C         7.2381845680       -2.7080826654        1.1406054379
  C         6.3043974371       -3.2595185548        0.2597489849
  H         6.7234702913       -1.0113587063       -2.2493736922
  H         8.3439029374       -0.1350486318       -0.5865998807
  H         7.4311513096       -3.1718825115        2.1002307344
  H         5.7706444685       -4.1587370065        0.5427908669
 Pd        -0.5299591674       -9.5612877426       -0.5361078113
  N         0.5959262191      -11.1913106039       -1.3763009954
  N        -1.8422393972      -11.1365468413        0.1198209414
  C         1.0233002662      -10.9533695395       -2.8018381725
  C         1.8274253369      -11.4346362767       -0.5301533199
  C        -0.3144730123      -12.4255234528       -1.3499282101
  C        -1.0817988635      -12.4544025134       -0.0548456076
  C        -3.0897501478      -11.1328854609       -0.7358676912
  C        -2.2449271906      -11.0154924282        1.5692358613
  H         0.1460434709      -10.7128531668       -3.4039993047
  H         1.4898301470      -11.8668038535       -3.1946666013
  H         1.7504800410      -10.1425361905       -2.8255064621
  H         1.5385506535      -11.6412646943        0.4992276731
  H         2.4594436964      -10.5473666623       -0.5781773762
  H         2.3784522859      -12.2955397558       -0.9343004014
  H        -0.9734783828      -12.3510302061       -2.2173160367
  H         0.2970869407      -13.3252664529       -1.4636223389
  H        -0.4254993429      -12.5610354521        0.8102351742
  H        -1.7962764247      -13.2841665438       -0.0451159317
  H        -2.8222441009      -11.2509589905       -1.7849937513
  H        -3.6129008708      -10.1890938782       -0.5795906933
  H        -3.7395739366      -11.9624018192       -0.4292406500