     294
 i =        3, E =     -1811.4270894903
  C        -5.3603004051       -2.7996849158        1.5989353190
  N        -4.7649634270       -3.9036536817        1.0920853248
  C        -3.8762274107       -4.5222921584        1.9032695988
  N        -3.5623764178       -4.0956954800        3.1486374791
  C        -4.2030152180       -2.9783339535        3.5647975370
  N        -5.1034509214       -2.2944339470        2.8253704976
  C        -6.3347952002       -2.0565221218        0.7165551964
  C        -6.9825972158       -0.8865280974        1.1566970224
  C        -7.8291946823       -0.1901364864        0.2905955456
  N        -8.0771191175       -0.5941553328       -0.9857755098
  C        -7.4842308397       -1.7471426701       -1.4023077608
  C        -6.6214048588       -2.4911396266       -0.5926412356
  H        -6.8305039109       -0.5150098648        2.1648250658
  H        -8.3325862326        0.7155957868        0.6165850224
  H        -7.7225869316       -2.0760121251       -2.4096312783
  H        -6.1838689676       -3.4054909155       -0.9797164410
  C        -3.1588884954       -5.7382354257        1.3710916640
  C        -3.4029655438       -6.2298095742        0.0736432960
  C        -2.6822724186       -7.3287225675       -0.4040256932
  N        -1.7331288062       -7.9706409297        0.3331009237
  C        -1.5195196934       -7.5205716637        1.6003122603
  C        -2.2024463736       -6.4277746099        2.1424163829
  H        -4.1526935284       -5.7686591395       -0.5609498610
  H        -2.8652997508       -7.7202120367       -1.4005512200
  H        -0.7857922874       -8.0631909466        2.1883944000
  H        -1.9905534000       -6.1222534197        3.1617471988
  C        -3.8585113639       -2.4268490637        4.9195872399
  C        -2.9129796697       -3.0611108821        5.7436322239
  C        -2.5589956115       -2.4808255040        6.9612551206
  N        -3.0926200015       -1.3143902922        7.4159052704
  C        -4.0418636001       -0.7212598155        6.6407220079
  C        -4.4423747210       -1.2409181204        5.4072041964
  H        -2.4528781217       -3.9965408517        5.4433929726
  H        -1.8276427110       -2.9572318136        7.6080823976
  H        -4.4879061813        0.1880357085        7.0327428844
  H        -5.2050060017       -0.7240947791        4.8341808816
  C        -1.8979011986        4.8995573927       -3.3505238016
  N        -1.0791126923        4.3713298235       -4.2898653737
  C        -1.5866540134        3.3428293902       -5.0080318131
  N        -2.8238475966        2.8268946986       -4.8243794363
  C        -3.5641758252        3.4044394910       -3.8503783063
  N        -3.1453454340        4.4433748025       -3.0909595760
  C        -1.3708372470        6.0381254004       -2.5143075517
  C        -2.1362947329        6.6167973118       -1.4824823029
  C        -1.5935374248        7.6332251294       -0.6890910603
  N        -0.3301305241        8.1120260728       -0.8611224737
  C         0.3990169436        7.5785842294       -1.8838421330
  C        -0.0796119360        6.5607698000       -2.7193256903
  H        -3.1520787215        6.2840461807       -1.2957361665
  H        -2.1779312941        8.0861065005        0.1067587338
  H         1.3918303140        7.9934340614       -2.0319379597
  H         0.5523085861        6.1864589357       -3.5177920218
  C        -0.7027431049        2.7076181666       -6.0520475060
  C         0.6021547653        3.1780604076       -6.2939175761
  C         1.4139495709        2.5366599438       -7.2333072766
  N         1.0041033196        1.4520275837       -7.9467379172
  C        -0.2697693183        1.0147487241       -7.7410818336
  C        -1.1375835531        1.6118063047       -6.8227343790
  H         0.9852799200        4.0424620042       -5.7617720645
  H         2.4202998593        2.8934080731       -7.4330193084
  H        -0.5920534144        0.1688547085       -8.3411304564
  H        -2.1437253656        1.2209999987       -6.7108447469
  C        -4.9248322663        2.8231692413       -3.5611839286
  C        -5.4249055149        1.7214878463       -4.2829564979
  C        -6.6617484308        1.1658396897       -3.9424739557
  N        -7.4321144989        1.6470956809       -2.9276300576
  C        -6.9727320795        2.7396518587       -2.2571535858
  C        -5.7441573866        3.3414688655       -2.5396413966
  H        -4.8598694698        1.2968052208       -5.1062771407
  H        -7.0588900360        0.3155711938       -4.4894290093
  H        -7.6177575565        3.1334046855       -1.4772903633
  H        -5.4343997355        4.2121295581       -1.9710410263
  C         3.8989310680        2.5386582193        4.1837767988
  N         3.6135192968        3.7027977941        3.5539936534
  C         2.4283728501        4.2675665348        3.8765554569
  N         1.5536116718        3.7429366000        4.7663244912
  C         1.9301579041        2.5867699184        5.3550857711
  N         3.0891193603        1.9436279230        5.0875937325
  C         5.1842359403        1.8420824611        3.8229620754
  C         5.5625257575        0.6297332126        4.4317119158
  C         6.7399708651       -0.0093124746        4.0357311269
  N         7.5624471414        0.4911146155        3.0729147217
  C         7.2221230716        1.6839175730        2.5118144084
  C         6.0591384802        2.3754629917        2.8566279424
  H         4.9502484836        0.1855458026        5.2095533319
  H         7.0463484211       -0.9456165139        4.4932774498
  H         7.9104815080        2.0843658853        1.7732775089
  H         5.8427182275        3.3260615621        2.3805018119
  C         2.0322207534        5.5386566438        3.1719304310
  C         2.8613189210        6.1476118335        2.2102267906
  C         2.4294628567        7.2989701856        1.5445469229
  N         1.2212771693        7.8820699485        1.7804378412
  C         0.4336276074        7.3147795512        2.7369481803
  C         0.7995705322        6.1611243874        3.4399889970
  H         3.8393545114        5.7362961934        1.9825574763
  H         3.0595349764        7.7778876473        0.8004729248
  H        -0.5107641617        7.8114246205        2.9400055863
  H         0.1290168588        5.7623433646        4.1934946876
  C         0.9775365823        1.9446963439        6.3319545797
  C        -0.2683808576        2.5275235525        6.6349782232
  C        -1.1546083787        1.8733372146        7.4946702655
  N        -0.8713406437        0.6735686299        8.0721883789
  C         0.3467698962        0.1236644318        7.8103143933
  C         1.2803212458        0.7203179486        6.9601695920
  H        -0.5489219291        3.4856849103        6.2100881477
  H        -2.1174411434        2.3122643246        7.7400360610
  H         0.5687952619       -0.8159654421        8.3077200163
  H         2.2366275466        0.2351924310        6.7939035956
  C         3.3705623197       -4.6808163316       -2.3943464229
  N         3.0944273132       -4.0671246573       -3.5683415434
  C         3.8637840013       -2.9964800150       -3.8700102137
  N         4.8373470417       -2.5099411615       -3.0675078236
  C         5.0347172285       -3.1770550816       -1.9082172232
  N         4.3333881128       -4.2730760153       -1.5346918040
  C         2.5211326134       -5.8686036801       -2.0065261297
  C         2.7073047363       -6.5423090286       -0.7837856266
  C         1.8718808388       -7.6087010215       -0.4372016200
  N         0.8567223205       -8.0432870469       -1.2347267408
  C         0.6921520555       -7.4142409393       -2.4317083937
  C         1.4924394104       -6.3452698174       -2.8439223409
  H         3.5025576358       -6.2484140398       -0.1061808537
  H         2.0099128923       -8.1395069090        0.5004066167
  H        -0.0997901663       -7.7929623605       -3.0710908358
  H         1.3148962055       -5.8929804447       -3.8142062069
  C         3.5909849222       -2.2695365076       -5.1601012664
  C         2.5859079666       -2.6950099650       -6.0492523263
  C         2.3188889330       -1.9585630023       -7.2065144541
  N         2.9964525395       -0.8232538780       -7.5313948848
  C         3.9977297358       -0.4322131559       -6.6937484901
  C         4.3199387850       -1.1198103841       -5.5203852540
  H         2.0130368962       -3.5940720158       -5.8466682462
  H         1.5454771398       -2.2747219323       -7.9007409151
  H         4.5516953794        0.4550342700       -6.9866339845
  H         5.1315470309       -0.7601478259       -4.8969209303
  C         6.0795888269       -2.6404285335       -0.9602094584
  C         6.8462283969       -1.5007817176       -1.2732542811
  C         7.7636377831       -0.9994695189       -0.3458934754
  N         7.9611595935       -1.5662542127        0.8767437496
  C         7.2473530468       -2.6886503073        1.1684792814
  C         6.3164661237       -3.2457090352        0.2883984276
  H         6.7369066272       -1.0082146144       -2.2337873087
  H         8.3643798390       -0.1240275983       -0.5751328885
  H         7.4431966901       -3.1470135839        2.1334333162
  H         5.7844007013       -4.1467975560        0.5756846629
 Pd        -0.5326000701       -9.5909571113       -0.5454534016
  N         0.5906358298      -11.2277041955       -1.3893481312
  N        -1.8444942791      -11.1610512843        0.1118758260
  C         1.0105688796      -10.9736986626       -2.8175926945
  C         1.8226465503      -11.4666929870       -0.5399350305
  C        -0.3132303253      -12.4676543213       -1.3546162531
  C        -1.0776036465      -12.4810470378       -0.0469766682
  C        -3.0850258458      -11.1656863323       -0.7565578425
  C        -2.2565427410      -11.0178622835        1.5576199119
  H         0.1259221807      -10.7536327737       -3.4214759221
  H         1.5037702967      -11.8725812134       -3.2114927553
  H         1.7145318845      -10.1391839020       -2.8424224609
  H         1.5343893145      -11.6375938082        0.4993660610
  H         2.4755492262      -10.5929746364       -0.6096207200
  H         2.3532277050      -12.3516871495       -0.9197471113
  H        -0.9826265987      -12.4189524113       -2.2182390108
  H         0.3060656909      -13.3707915809       -1.4591698321
  H        -0.4037281668      -12.5657333847        0.8105720728
  H        -1.7861047555      -13.3211826142       -0.0058618801
  H        -2.8090330421      -11.2866519343       -1.8061440985
  H        -3.6191417499      -10.2230253387       -0.6137820637
  H        -3.7317541963      -11.9998621203       -0.4514947910
  H        -1.3624742857      -10.9609425368        2.1848937808
  H        -2.8461134027      -11.8976263259        1.8496321442
  H        -2.8694095777      -10.1215090930        1.6721412321
 Pd        -9.2762484731        0.6429693762       -2.3261638752
  N       -10.5103670062        1.8264749081       -3.6332327244
  C       -10.2275081789        3.3087944676       -3.5492017787
  C       -10.3129462592        1.3731228191       -5.0669756362
  C       -11.9571184338        1.5863202647       -3.1928809382
  H       -10.3228301604        3.6376178589       -2.5105442107
  H       -10.9612612018        3.8458534206       -4.1658469794
  H        -9.2244180194        3.5090934825       -3.9308855281
  H       -10.5342397225        0.3077884029       -5.1595989601
  H        -9.2792103263        1.5711652462       -5.3602720874
  H       -10.9896890748        1.9441066823       -5.7168414117
  H       -12.1441717930        2.2190325987       -2.3204171345
  H       -12.6375960371        1.9071989626       -3.9940841510
  C       -12.1427450682        0.1212969676       -2.8706110864
  N       -11.1276270072       -0.3010929068       -1.8054494133
  H       -11.9784659160       -0.5078682473       -3.7501206413
  H       -13.1544430036       -0.0807773820       -2.4957133287
  C       -11.5838332080        0.1590388470       -0.4364670751
  C       -11.0370135536       -1.8087336398       -1.8103745643
  H       -11.6754384917        1.2470872690       -0.4160062544
  H       -10.8572314365       -0.1725646067        0.3092568844
  H       -12.5623238853       -0.2915782758       -0.2172883081
  H       -10.6642158829       -2.1455835469       -2.7818879563
  H       -12.0393138072       -2.2270699534       -1.6455363220
  H       -10.3755493206       -2.1354408688       -1.0057483343
 Pd        -2.3688346780       -0.3965316906        9.2666748795
  N        -1.7165530543        0.4540650490       11.1263282364
  C        -0.2184284093        0.4208944054       11.3184258691
  C        -2.1876262968        1.8924449906       11.1917790148
  C        -2.3671591452       -0.3618452392       12.2485831389
  H         0.1366325845       -0.6090388037       11.2225718526
  H         0.0183883625        0.7914154644       12.3257005517
  H         0.2556352542        1.0670798232       10.5771250829
  H        -3.2723887362        1.9399823315       11.0751672046
  H        -1.6982828561        2.4616159427       10.3977772011
  H        -1.9075841747        2.3163164696       12.1659346282
  H        -1.7709818990       -1.2680099006       12.3899071813
  H        -2.3236769845        0.2199086616       13.1786729032
  C        -3.7955904051       -0.6811816937       11.8684582773
  N        -3.8152665678       -1.3911640161       10.5097835046
  H        -4.4000711851        0.2254379735       11.7736868620
  H        -4.2726148922       -1.3278309392       12.6178047820
  C        -3.4225805276       -2.8441797774       10.6754540344
  C        -5.2213405095       -1.3230203124        9.9597729893
  H        -2.4203152438       -2.9167166362       11.1030773029
  H        -3.4528376583       -3.3332752880        9.6987638037
  H        -4.1414982468       -3.3331341782       11.3471668671
  H        -5.4940756055       -0.2778841235        9.7888970710
  H        -5.9122390831       -1.7600365374       10.6938394121
  H        -5.2753186456       -1.8961046413        9.0319601744
 Pd         0.5279969343        9.5824409178        0.5449461723
  N        -0.0946330721       11.3036021573       -0.6002243628
  C         0.2072650534       11.1768209383       -2.0741173734
  C        -1.5837508103       11.5029429196       -0.4215354778
  C         0.6744831336       12.5126330573       -0.0506879833
  H         1.2729510070       10.9725339476       -2.2105710675
  H        -0.0442650580       12.1255354727       -2.5701189007
  H        -0.3998276244       10.3752333147       -2.4997404044
  H        -1.8265250792       11.6036514479        0.6385622577
  H        -2.1085507047       10.6445548851       -0.8482324011
  H        -1.8885697283       12.4164324992       -0.9522096911
  H         1.6744693602       12.4933924476       -0.4940756727
  H         0.1785710242       13.4384731309       -0.3804068808
  C         0.7313540474       12.4308337351        1.4585437508
  N         1.3330129763       11.0766082514        1.8681057197
  H        -0.2646262273       12.4961565694        1.9063504180
  H         1.3466369163       13.2380661201        1.8793931684
  C         2.8389309014       11.1046960527        1.7040496140
  C         1.0003863216       10.8224122704        3.3187855067
  H         3.1000033657       11.3107538450        0.6637025886
  H         3.2462963073       10.1383673661        2.0107090193
  H         3.2543307113       11.8930168614        2.3462084827
  H        -0.0842081973       10.7444031665        3.4343601065
  H         1.3677189404       11.6644131916        3.9212683920
  H         1.4938577317        9.9054927383        3.6472182026
 Pd         9.2695599624       -0.6491491857        2.3626629585
  N        10.9998308367       -1.7403302714        1.7302233481
  C        10.7503993037       -3.2192628592        1.5454016631
  C        11.5104030526       -1.1593873082        0.4282666965
  C        12.0483512402       -1.5672576234        2.8330379273
  H        10.3374560228       -3.6345427331        2.4689304435
  H        11.7045939953       -3.7154868734        1.3217286410
  H        10.0637536088       -3.3691319599        0.7098844494
  H        11.7140576496       -0.0929138831        0.5458375947
  H        10.7571056365       -1.3151888148       -0.3477005038
  H        12.4370989478       -1.6770796456        0.1440260581
  H        11.8032876405       -2.2716991035        3.6328749939
  H        13.0327897864       -1.8413995165        2.4315252940
  C        12.0326078769       -0.1377871448        3.3246608948
  N        10.6168938854        0.2180984051        3.7917417153
  H        12.3063305496        0.5655643058        2.5329368628
  H        12.7355973439        0.0050648046        4.1574059096
  C        10.3548076820       -0.3699931040        5.1623678897
  C        10.5094210035        1.7223706274        3.8783727756
  H        10.4553158419       -1.4569624601        5.1322017374
  H         9.3466041513       -0.0926995589        5.4793523286
  H        11.0837238096        0.0436807986        5.8724404181
  H        10.6483895972        2.1540973922        2.8832496534
  H        11.2964580591        2.0971911473        4.5469289639
  H         9.5339798523        1.9933267901        4.2872928950
 Pd         2.3923411599        0.3872738577       -9.2545944233
  N         1.8478579821        1.5137426790      -10.9980788873
  C         0.3544937966        1.6385807024      -11.1864519884
  C         2.4457913074        2.9035711137      -10.9040627872
  C         2.4274614341        0.7729715245      -12.2092184724
  H        -0.0940789261        0.6413554098      -11.2037829755
  H         0.1573673248        2.1383315092      -12.1450808594
  H        -0.0643734126        2.2395856625      -10.3769099392
  H         3.5301071236        2.8389251877      -10.7914136224
  H         2.0070653984        3.4200845306      -10.0471238379
  H         2.2070867808        3.4568799241      -11.8221838406
  H         1.7418977816       -0.0409030490      -12.4631593621
  H         2.4594537217        1.4631273309      -13.0622426657
  C         3.8078514508        0.2619478654      -11.8656408539
  N         3.7331185835       -0.6028978346      -10.6028667001
  H         4.5014917350        1.0822964342      -11.6608232959
  H         4.2263833614       -0.3382455264      -12.6850888009
  C         3.1730542068       -1.9698212558      -10.9359717984
  C         5.1327162902       -0.7636268304      -10.0563729853
  H         2.1695795887       -1.8732949318      -11.3560352938
  H         3.1435798833       -2.5717389479      -10.0245575208
  H         3.8294996630       -2.4563376856      -11.6704408872
  H         5.5243491599        0.2163467562       -9.7697106928
  H         5.7721574222       -1.1919343187      -10.8404605042
  H         5.1125724389       -1.4417115753       -9.2011025575