#     Step Nr.          Time[fs]        Kin.[a.u.]          Temp[K]            Pot.[a.u.]        Cons Qty[a.u.]        UsedTime[s]
         0            0.000000         0.805148550       333.000000000      -693.223887075      -692.418738524         0.000000000
         1            0.500000         0.804836923       332.871114401      -693.222501356      -692.418710753         1.738132954
         2            1.000000         0.792164940       327.630131103      -693.216996412      -692.418585455         1.004606009
         3            1.500000         0.773295365       319.825896081      -693.209224598      -692.418396518         0.850377083
         4            2.000000         0.777389578       321.519214465      -693.202410587      -692.418201740         0.867421865
         5            2.500000         0.799106605       330.501122408      -693.199289273      -692.418069720         0.650295973
         6            3.000000         0.795806647       329.136298229      -693.201599073      -692.418049822         0.744745016
         7            3.500000         0.803941838       332.500917841      -693.209570890      -692.418153257         0.782771111
         8            4.000000         0.807186989       333.843074136      -693.221614804      -692.418338098         0.724256992
         9            4.500000         0.817590439       338.145819388      -693.235067778      -692.418522683         0.654531002
        10            5.000000         0.832239858       344.204647101      -693.247110063      -692.418645502         0.966521978
        11            5.500000         0.827974467       342.440531461      -693.255605494      -692.418671468         0.667748928
        12            6.000000         0.817698414       338.190476527      -693.260184622      -692.418619031         0.726880074
        13            6.500000         0.817108092       337.946326341      -693.261869564      -692.418545740         0.651218891
        14            7.000000         0.825612868       341.463801712      -693.261963287      -692.418481965         0.733535051
        15            7.500000         0.814323404       336.794612026      -693.261440024      -692.418444520         0.709800959
        16            8.000000         0.813806048       336.580639637      -693.260973552      -692.418423601         0.735000134
        17            8.500000         0.806040253       333.368797920      -693.261240928      -692.418402780         0.647237062
        18            9.000000         0.809271601       334.705245292      -693.262765325      -692.418374513         0.653743982
        19            9.500000         0.801403329       331.451020295      -693.266084146      -692.418352293         0.709536791
        20           10.000000         0.817922263       338.283057723      -693.271585405      -692.418363708         0.648822069
        21           10.500000         0.836916862       346.139001114      -693.278886604      -692.418433509         0.655158997
        22           11.000000         0.837122569       346.224079340      -693.286738827      -692.418553216         0.683140039
        23           11.500000         0.828923254       342.832938683      -693.293501046      -692.418681821         0.644760132
        24           12.000000         0.846875833       350.257914781      -693.297448755      -692.418760204         0.655049801
        25           12.500000         0.839810062       347.335594630      -693.297407373      -692.418750457         0.733281136
        26           13.000000         0.835618348       345.601951162      -693.293810366      -692.418641224         0.693820000
        27           13.500000         0.814184871       336.737316178      -693.288446734      -692.418478912         0.653197050
        28           14.000000         0.808237566       334.277580765      -693.284098928      -692.418323619         0.665434837
        29           14.500000         0.814774692       336.981259247      -693.283203811      -692.418246558         0.744908094
        30           15.000000         0.809886832       334.959697934      -693.286930832      -692.418283859         0.672890902
        31           15.500000         0.819479824       338.927246722      -693.294666869      -692.418423611         0.665189028
        32           16.000000         0.820339874       339.282953460      -693.304203061      -692.418609689         0.653743029
        33           16.500000         0.834463073       345.124142954      -693.312945232      -692.418770826         0.645282984
        34           17.000000         0.843109770       348.700315330      -693.318088841      -692.418838559         0.656489134
        35           17.500000         0.836107524       345.804268509      -693.318301931      -692.418791449         0.648504972
        36           18.000000         0.819659112       339.001398222      -693.314552147      -692.418664386         0.662904978
        37           18.500000         0.814305779       336.787322539      -693.308936022      -692.418519491         0.648752928
        38           19.000000         0.801959752       331.681150489      -693.303641240      -692.418415885         0.655771017
        39           19.500000         0.790280015       326.850548268      -693.300586672      -692.418390217         0.645591021
        40           20.000000         0.796457172       329.405347929      -693.300447532      -692.418445422         0.659053087
        41           20.500000         0.814234084       336.757670364      -693.302328193      -692.418531556         0.654971838
        42           21.000000         0.824018433       340.804362333      -693.304662099      -692.418604029         0.651268005
        43           21.500000         0.817344090       338.043932294      -693.306377538      -692.418626226         0.649506092
        44           22.000000         0.814674648       336.939882137      -693.307219059      -692.418599323         0.776314020
        45           22.500000         0.829753704       343.176403153      -693.307636426      -692.418550291         0.647223949
        46           23.000000         0.813795434       336.576249689      -693.308314618      -692.418515856         0.671123028
        47           23.500000         0.823697058       340.671445186      -693.309670563      -692.418510625         0.672163010
        48           24.000000         0.822754902       340.281780486      -693.311850554      -692.418537120         0.651865959
        49           24.500000         0.807657135       334.037521341      -693.314790760      -692.418581060         0.709702969
        50           25.000000         0.817777421       338.223152816      -693.318190340      -692.418611296         0.653877020
        51           25.500000         0.820759381       339.456456356      -693.321624449      -692.418608087         0.653429031
        52           26.000000         0.802206945       331.783386523      -693.325412524      -692.418572469         0.650613070
        53           26.500000         0.816258511       337.594949409      -693.330358157      -692.418547973         0.656209946
        54           27.000000         0.817412657       338.072290657      -693.336764104      -692.418584929         0.648095846
        55           27.500000         0.822783505       340.293610418      -693.343931929      -692.418697926         0.648528099
        56           28.000000         0.819161429       338.795562098      -693.350093777      -692.418850141         0.655402899
        57           28.500000         0.831900774       344.064406143      -693.352915089      -692.418957811         0.765447140
        58           29.000000         0.827693583       342.324361331      -693.350629820      -692.418958074         0.659847975
        59           29.500000         0.820583345       339.383649971      -693.343100815      -692.418841088         0.588062048
        60           30.000000         0.803011402       332.116100688      -693.332074849      -692.418643590         0.683167934
        61           30.500000         0.782427861       323.602989395      -693.320652542      -692.418448818         0.765202045
        62           31.000000         0.765862353       316.751689593      -693.311986150      -692.418337542         0.659888029
        63           31.500000         0.767728504       317.523507757      -693.307769747      -692.418333846         0.660200834
        64           32.000000         0.770472986       318.658593335      -693.308048558      -692.418439588         0.652099133
        65           32.500000         0.773370220       319.856855058      -693.311244065      -692.418601119         1.713825941
        66           33.000000         0.777398900       321.523070096      -693.314720051      -692.418761366         1.294119120
        67           33.500000         0.767168724       317.291989241      -693.316014775      -692.418866870         1.001385927
        68           34.000000         0.753376655       311.587751117      -693.313814201      -692.418895015         0.587460995
        69           34.500000         0.759693785       314.200442006      -693.307745842      -692.418835380         0.644999027
        70           35.000000         0.742226179       306.976044922      -693.298685397      -692.418706727         0.647455931
        71           35.500000         0.734598757       303.821432511      -693.288817173      -692.418547650         0.658308983
        72           36.000000         0.723049336       299.044727413      -693.280742963      -692.418404567         0.645952940
        73           36.500000         0.711529367       294.280203283      -693.276712813      -692.418323833         0.654886007
        74           37.000000         0.713156400       294.953125257      -693.278015589      -692.418327583         0.646394014
        75           37.500000         0.716834872       296.474498175      -693.284776076      -692.418409525         0.649255037
        76           38.000000         0.718139732       297.014172717      -693.295994588      -692.418544140         0.663069010
        77           38.500000         0.732503254       302.954757165      -693.309802791      -692.418694964         0.650105000
        78           39.000000         0.768884142       318.001465884      -693.323882588      -692.418832598         0.646845102
        79           39.500000         0.773713043       319.998642717      -693.335908107      -692.418937881         0.651888847
        80           40.000000         0.782226989       323.519911086      -693.343893702      -692.418985956         0.643296003
        81           40.500000         0.784930330       324.637981276      -693.347012925      -692.418990150         0.656960011
        82           41.000000         0.763761676       315.882873837      -693.345299743      -692.418936720         0.648153067
        83           41.500000         0.754761921       312.160680740      -693.340000085      -692.418829078         0.657380104
        84           42.000000         0.748380942       309.521582928      -693.332902886      -692.418685202         0.734994888
        85           42.500000         0.730022840       301.928886926      -693.326333663      -692.418546284         0.652167082
        86           43.000000         0.725521419       300.067152205      -693.322520806      -692.418461490         0.589929819
        87           43.500000         0.739389979       305.803025830      -693.322805752      -692.418460178         0.659228086
        88           44.000000         0.732539908       302.969916952      -693.327088171      -692.418547486         0.657977104
        89           44.500000         0.744975479       308.113123231      -693.333870592      -692.418688540         0.648123980
        90           45.000000         0.760028339       314.338809706      -693.340878915      -692.418844023         0.685493946
        91           45.500000         0.764862669       316.338231792      -693.345418106      -692.418965419         0.660870075
        92           46.000000         0.777007508       321.361194689      -693.345328394      -692.419012109         0.642748833
        93           46.500000         0.774231815       320.213200723      -693.339824151      -692.418962002         0.663397074
        94           47.000000         0.757814182       313.423060255      -693.329465445      -692.418822561         0.650727987
        95           47.500000         0.744777395       308.031198171      -693.316750372      -692.418623310         0.647283077
        96           48.000000         0.734337772       303.713492449      -693.304786451      -692.418422657         0.658715010
        97           48.500000         0.720118445       297.832545279      -693.297093723      -692.418278090         0.715312958
        98           49.000000         0.711282672       294.178173464      -693.295979138      -692.418238013         0.647397041
        99           49.500000         0.709537140       293.456241696      -693.302040894      -692.418324863         0.714709997
       100           50.000000         0.714543429       295.526784253      -693.314125255      -692.418503607         0.650823832
       101           50.500000         0.725389353       300.012531180      -693.329806610      -692.418735769         0.655651093
       102           51.000000         0.735013351       303.992903857      -693.345689780      -692.418960183         0.656925917
       103           51.500000         0.746085660       308.572280995      -693.358474897      -692.419121410         0.652527094
       104           52.000000         0.762909023       315.530226763      -693.365421362      -692.419177135         0.647325993
       105           52.500000         0.762348173       315.298265591      -693.365541385      -692.419109363         0.883249998
       106           53.000000         0.769467201       318.242612464      -693.359708552      -692.418938061         0.681499004
       107           53.500000         0.755297270       312.382094883      -693.350453041      -692.418714780         0.648257017
       108           54.000000         0.746871006       308.897090811      -693.341477612      -692.418509810         0.699120998
       109           54.500000         0.749784419       310.102044364      -693.335989304      -692.418380675         0.759989977
       110           55.000000         0.751343268       310.746766085      -693.335820563      -692.418351231         0.665478945
       111           55.500000         0.772695603       319.577841430      -693.341253199      -692.418422971         0.665276051
       112           56.000000         0.772680240       319.571487534      -693.351054913      -692.418567169         0.664731026
       113           56.500000         0.768629227       317.896035900      -693.362931947      -692.418748139         0.654687881
       114           57.000000         0.778658029       322.043830976      -693.374257770      -692.418916231         0.649495125
       115           57.500000         0.783498260       324.045693863      -693.382433309      -692.419031072         0.654670954
       116           58.000000         0.799569634       330.692625574      -693.385302376      -692.419085941         0.660207987
       117           58.500000         0.791513550       327.360723917      -693.381833018      -692.419052085         0.651427984
       118           59.000000         0.790777300       327.056219168      -693.372324393      -692.418943319         0.654471159
       119           59.500000         0.784606229       324.503936846      -693.358308667      -692.418776691         0.646358013
       120           60.000000         0.763850026       315.919414591      -693.342541605      -692.418585384         0.654339790
       121           60.500000         0.755548984       312.486200816      -693.328132875      -692.418414176         0.659860134
       122           61.000000         0.765531599       316.614893449      -693.317621996      -692.418302611         0.650080919
       123           61.500000         0.765677319       316.675161580      -693.312592224      -692.418276391         0.653279066
       124           62.000000         0.764700213       316.271041810      -693.313258002      -692.418339057         0.661081076
       125           62.500000         0.770796250       318.792291556      -693.318493710      -692.418471346         0.752053022
       126           63.000000         0.783546030       324.065450896      -693.326204104      -692.418638825         0.597395897
       127           63.500000         0.782545377       323.651592707      -693.333942664      -692.418801569         0.653107882
       128           64.000000         0.793722241       328.274212618      -693.339436048      -692.418913142         0.647874117
       129           64.500000         0.789308117       326.448582289      -693.340796028      -692.418947586         0.652541876
       130           65.000000         0.791425240       327.324199628      -693.337609631      -692.418888508         0.649876118
       131           65.500000         0.799171876       330.528117722      -693.330726220      -692.418753771         0.658026934
       132           66.000000         0.784424471       324.428763696      -693.322118179      -692.418583736         0.660722971
       133           66.500000         0.778511575       321.983259342      -693.314468471      -692.418431326         0.662739038
       134           67.000000         0.768408499       317.804745437      -693.310147672      -692.418340344         0.649827957
       135           67.500000         0.766922608       317.190198296      -693.310675594      -692.418330534         0.680435181
       136           68.000000         0.771840592       319.224218880      -693.316378313      -692.418401894         0.660593987
       137           68.500000         0.776642224       321.210117701      -693.326272941      -692.418525807         0.649570942
       138           69.000000         0.799465725       330.649650207      -693.338346488      -692.418666164         0.654862881
       139           69.500000         0.808611327       334.432163995      -693.350299094      -692.418791184         0.651175022
       140           70.000000         0.831738618       343.997340190      -693.359990477      -692.418872489         0.645431995
       141           70.500000         0.839607484       347.251810856      -693.365797190      -692.418901005         0.668456078
       142           71.000000         0.828948365       342.843324163      -693.367180957      -692.418871973         0.647807121
       143           71.500000         0.823903470       340.756815032      -693.364946790      -692.418802059         0.648928881
       144           72.000000         0.813842671       336.595786456      -693.360215519      -692.418715351         0.652115107
       145           72.500000         0.792961022       327.959381211      -693.354584522      -692.418632309         0.715205908
       146           73.000000         0.785484749       324.867282244      -693.349586906      -692.418580693         0.656210899
       147           73.500000         0.778409551       321.941063510      -693.346237466      -692.418565510         0.653483152
       148           74.000000         0.780340023       322.739483841      -693.344954408      -692.418585238         0.653065920
       149           74.500000         0.789440755       326.503439886      -693.345426578      -692.418625141         0.649945974
       150           75.000000         0.786705076       325.371995426      -693.346896444      -692.418675515         0.648072004
       151           75.500000         0.794865027       328.746855391      -693.348480874      -692.418723230         0.661291122
       152           76.000000         0.796621580       329.473345114      -693.349307666      -692.418768828         0.650171995
       153           76.500000         0.789211794       326.408744459      -693.348650402      -692.418792735         0.652338028
       154           77.000000         0.787700544       325.783709098      -693.346195224      -692.418787661         0.652263880
       155           77.500000         0.796858343       329.571267426      -693.342021302      -692.418753003         0.651929140
       156           78.000000         0.793742191       328.282463521      -693.336521510      -692.418697448         0.658652782
       157           78.500000         0.785648788       324.935126828      -693.330578576      -692.418638726         0.649449110
       158           79.000000         0.769392556       318.211740000      -693.325242702      -692.418593279         0.646486044
       159           79.500000         0.750912245       310.568500177      -693.321446141      -692.418578573         0.651346922
       160           80.000000         0.734504543       303.782466723      -693.319790310      -692.418600101         0.645180941
       161           80.500000         0.723929507       299.408755921      -693.320276012      -692.418646192         0.655009031
       162           81.000000         0.732209217       302.833146880      -693.322235868      -692.418691951         0.652745008
       163           81.500000         0.738073581       305.258579117      -693.324978271      -692.418713247         0.709517002
       164           82.000000         0.743835735       307.641738434      -693.328224977      -692.418711846         0.646589994
       165           82.500000         0.755761787       312.574213903      -693.331847654      -692.418695644         0.650876045
       166           83.000000         0.767281353       317.338571067      -693.335837693      -692.418683427         0.651957989
       167           83.500000         0.778015710       321.778175457      -693.340116486      -692.418683043         0.652282953
       168           84.000000         0.800095335       330.910049355      -693.344521862      -692.418695670         0.650063038
       169           84.500000         0.810416366       335.178706807      -693.348546627      -692.418716860         0.648854971
       170           85.000000         0.800696968       331.158877646      -693.351671734      -692.418749118         0.648072958
       171           85.500000         0.792433627       327.741256719      -693.353620257      -692.418784281         0.662001133
       172           86.000000         0.788350200       326.052399331      -693.354132915      -692.418814124         0.644711018
       173           86.500000         0.791300768       327.272719748      -693.352759472      -692.418825389         0.652876854
       174           87.000000         0.790812884       327.070936645      -693.349347608      -692.418802998         0.645049095
       175           87.500000         0.785323486       324.800585899      -693.344274277      -692.418748406         0.648066998
       176           88.000000         0.784061679       324.278717095      -693.338263812      -692.418676176         0.653223038
       177           88.500000         0.775871800       320.891479351      -693.332499657      -692.418608049         0.652215004
       178           89.000000         0.769638154       318.313316515      -693.328052960      -692.418562493         0.647361994
       179           89.500000         0.762717046       315.450827433      -693.325688536      -692.418542986         0.664119005
       180           90.000000         0.757083149       313.120713398      -693.325912138      -692.418557978         0.666286945
       181           90.500000         0.754428738       312.022880369      -693.328605337      -692.418611991         0.841581106
       182           91.000000         0.754723356       312.144730692      -693.332970050      -692.418681258         0.647422791
       183           91.500000         0.763884876       315.933828109      -693.337967703      -692.418756870         0.651017189
       184           92.000000         0.779051483       322.206558816      -693.342448264      -692.418827863         0.644915819
       185           92.500000         0.785550750       324.894579511      -693.345001484      -692.418883001         0.651867151
       186           93.000000         0.798558986       330.274633617      -693.344340216      -692.418893867         0.766866922
       187           93.500000         0.782115783       323.473917524      -693.340144196      -692.418839151         0.699064016
       188           94.000000         0.776695914       321.232323380      -693.333209220      -692.418721575         0.648871899
       189           94.500000         0.780953252       322.993108273      -693.325434687      -692.418575447         0.653644085
       190           95.000000         0.770342420       318.604592604      -693.318811860      -692.418438185         0.775972128
       191           95.500000         0.770003308       318.464339746      -693.315503920      -692.418355415         0.740761995
       192           96.000000         0.772128866       319.343445511      -693.316764999      -692.418344335         0.648746967
       193           96.500000         0.775361188       320.680296074      -693.322689309      -692.418405363         0.755789042
       194           97.000000         0.788250351       326.011102829      -693.332420284      -692.418521172         0.648811817
       195           97.500000         0.784836167       324.599036294      -693.344109776      -692.418662830         0.656898022
       196           98.000000         0.796565978       329.450348743      -693.355544748      -692.418811710         0.662111044
       197           98.500000         0.799018569       330.464711519      -693.364665923      -692.418942726         0.648339033
       198           99.000000         0.810357885       335.154519753      -693.369393319      -692.419014807         0.647697926
       199           99.500000         0.814785005       336.985524710      -693.368628470      -692.419007209         0.653017044
       200          100.000000         0.812506615       336.043209143      -693.362287936      -692.418904539         0.642781973
       201          100.500000         0.798305577       330.169826447      -693.352060241      -692.418742839         0.661307096
       202          101.000000         0.800107423       330.915048731      -693.340285086      -692.418566684         0.648329020
       203          101.500000         0.785033204       324.680528510      -693.329671588      -692.418418797         0.646898985
       204          102.000000         0.785836381       325.012713371      -693.322589723      -692.418335072         0.648696899
       205          102.500000         0.783930921       324.224637471      -693.320271061      -692.418339553         0.651890039
       206          103.000000         0.780509723       322.809669911      -693.322682211      -692.418421790         0.652133942
       207          103.500000         0.781019090       323.020338036      -693.328674022      -692.418557845         0.654147148
       208          104.000000         0.788967605       326.307750808      -693.336276287      -692.418709835         0.644960880
       209          104.500000         0.808750646       334.489784605      -693.343050471      -692.418849894         0.649049044
       210          105.000000         0.817249152       338.004666930      -693.346443742      -692.418928856         0.653501034
       211          105.500000         0.818204576       338.399819179      -693.345050545      -692.418922081         0.651497841
       212          106.000000         0.799053294       330.479073481      -693.339101732      -692.418832682         0.650892019
       213          106.500000         0.790990614       327.144443707      -693.330141245      -692.418687014         0.657543182
       214          107.000000         0.781083305       323.046896764      -693.320452953      -692.418511136         0.667123795
       215          107.500000         0.772138144       319.347283065      -693.312956511      -692.418359871         0.661264181
       216          108.000000         0.769415915       318.221401175      -693.310054085      -692.418276842         0.676435947
       217          108.500000         0.773253050       319.808394895      -693.312915150      -692.418286622         0.661992073
       218          109.000000         0.776876143       321.306863898      -693.321408889      -692.418377987         0.668183804
       219          109.500000         0.800584767       331.112472683      -693.334200343      -692.418531654         0.647802114
       220          110.000000         0.834940985       345.321801515      -693.348667987      -692.418713445         0.645392895
       221          110.500000         0.839196373       347.081780222      -693.361596493      -692.418871344         0.665937185
       222          111.000000         0.846569234       350.131109205      -693.370438034      -692.418961395         0.664189816
       223          111.500000         0.850198588       351.632167166      -693.373961974      -692.418962299         0.645702124
       224          112.000000         0.847226874       350.403101196      -693.372212350      -692.418868005         0.664077044
       225          112.500000         0.837173610       346.245188995      -693.366705272      -692.418705764         0.711947918
       226          113.000000         0.835934910       345.732877273      -693.359937234      -692.418527330         0.665904999
       227          113.500000         0.823406087       340.551103009      -693.354754676      -692.418392058         0.646768093